[Molden Format]
[Molpro variables]
_NUMVAR=  1078.000000000000    
_AVOGAD= 0.6022140760000000E+24
_BOLTZ= 0.1380649000000000E-22
_CLIGHTSI=  299792458.0000000    
_JOULE= 0.4359744722207100E-17
_JPCAL=  4.184000000000000    
_PLANCK= 0.6626070150000000E-33
_BOHR= 0.5291772109030000E-10
_ECHARG= 0.1602176634000000E-18
_ENULL= 0.8854187812800001E-11
_MU= 0.1660539066600000E-26
_EMASS= 0.9109383701500001E-30
_AMU2AU=  1822.888486217313    
_CLIGHT=  29979245800.00000    
_EV= 0.3674932217565494E-01
_KJOULE= 0.3808798847133432E-03
_KJOULE/MOL= 0.3808798847133432E-03
_CM= 0.4556335252912009E-05
_CM-1= 0.4556335252912009E-05
_DEB2SI= 0.3335640951981520E-29
_KCAL= 0.1593601437640628E-02
_KCAL/MOL= 0.1593601437640628E-02
_KELVIN= 0.3166811563455608E-05
_HERTZ= 0.1519829846057038E-15
_HZ= 0.1519829846057038E-15
_TOA= 0.5291772109030000    
_TOANG= 0.5291772109030000    
_TORAD= 0.1745329251994330E-01
_TOCM=  219474.6313631965    
_TODEBYE=  2.541746473194078    
_TOE= 0.4803204712570263E-09
_TOEV=  27.21138624598803    
_TOHERTZ=  6579683920501656.    
_TOHZ=  6579683920501656.    
_TOK=  315775.0248040668    
_TOKCAL=  627.5094740630558    
_TOKELVIN=  315775.0248040668    
_TOKJ=  2625.499639479825    
_TOKJOULE=  2625.499639479825    
_TOKG= 0.1660539066600000E-26
_ANG=  1.889726124625770    
_ANGSTROM=  1.889726124625770    
_RPAREF=  0.000000000000000    
_RPADISS=  0.000000000000000    
_IGNORE_UNDEF=  2.000000000000000    
_STRICTCHECK=  0.000000000000000    
!SEWARD=  0.000000000000000    
!MULTI=  0.000000000000000    
!DFMULTI=  0.000000000000000    
_SEW_ONEEL=  0.000000000000000    
_CPPDONE=FALSE
_DKROLL_DONE=  0.000000000000000    
_FNUC_DONE=  0.000000000000000    
_FOCKDONE=TRUE
_GRADONE=FALSE
_HESSDONE=TRUE
_INTDONE=TRUE
_SCFDONE=FALSE
_MODUL_BLOCK=FALSE
_MODUL_SLATER=FALSE
_MODUL_MRCC=FALSE
_MODUL_NBO6=FALSE
_MODUL_NECI=FALSE
_MODUL_AIMS=TRUE
_MODUL_HDF5=FALSE
_MODUL_GECCO=FALSE
_ISWINDOWS=FALSE
_MRCC_EXEC=
_FITC_AO_SAVED=FALSE
_FITC_MO_SAVED=FALSE
_SHARED_FS=TRUE
_LSTYP=SEWARD
_INTYP=INTS
_GEOMTYP=ZMAT
_GRADTYP=ALASKA
_DIRECT=FALSE
_DKHO= -1.000000000000000    
_FNUC=  0.000000000000000    
_SYNCM=  0.000000000000000    
_BASIS=AUG-CC-PVDZ
_ZORIENT=  1.000000000000000    
!ZORIENT=  0.000000000000000    
_NELEC=  36.00000000000000    
!SPIN=  0.000000000000000    
_QSDSTEP=  0.000000000000000    
_QSDIRC=  0.000000000000000    
_PROGRAM=FREQ
_CPUSTEP= 0.1400000000000148    
_SYSSTEP= 0.1999999999999957E-01
_WALLSTEP= 0.3600000000000000    
!DFSCF=  0.000000000000000    
!SCSGRD=  0.000000000000000    
_NCEN=  9.000000000000000    
_CPUTOT=  137.0900000000000    
_DFTEXFAC=  1.000000000000000    
_DMX=-0.8164964529475451    
_DMY= 0.2733995701059682    
_DMZ= 0.3519507181398405E-11
_DMX_SCF=-0.7547409502669162    
_DMY_SCF= 0.3876424457605130    
_DMZ_SCF=-0.3100660528268395E-15
_FREQUENCIES= 0.3824936118185381E-04
_HOMO=  18.10000000000000    
_EHOMO=-0.2813233942329417    
_LUMO=  19.10000000000000    
_ELUMO= 0.2968424911031605    
_ENERGY= -224.8820279371452    
_ENERGY_METHOD=MULTI
_ENERGY_BASIS=aug-cc-pVDZ
_GEOMETRY_METHOD=
_GEOMETRY_BASIS=
_ENERGY_AVRG= -224.8820279371450    
_ENUC=  163.7799424484777    
_GRADEXFAC=  9999.000000000000    
_GRADMETHOD=  4.000000000000000    
_NMRMETHOD=  0.000000000000000    
_NMRMAGNET=  0.000000000000000    
!GRID_FREEZE= -1.000000000000000    
!NEESE_INDEX=  0.000000000000000    
_ITERATIONS=  4.000000000000000    
_LASTNELEC=  8.000000000000000    
_LASTSPIN=  0.000000000000000    
_LASTSYM=  1.000000000000000    
_MPP_PROG=  1.000000000000000    
_MSNSTATES=  0.000000000000000    
_RS2PHASE=  0.000000000000000    
_IPROC_MPP=  0.000000000000000    
_IPROC_MPPX=  0.000000000000000    
_NPROC_MPP=  4.000000000000000    
_NPROC_MPPX=  4.000000000000000    
_NPROC_SMP=  1.000000000000000    
_NUMSTEP=  0.000000000000000    
_ORBITAL=  2041.200000000000    
_PI=  3.141592653589793    
!MCACT=  6.000000000000000    
!MCCLOSED=  14.00000000000000    
!MCFREEZE=  0.000000000000000    
!MCMS2=  0.000000000000000    
!MCNEL=  8.000000000000000    
!MCNSTSYM=  1.000000000000000    
!MCSTATE=  1.000000000000000    
!MCSYM=  1.000000000000000    
!MCWEIGHT=  1.000000000000000    
_SEIG_MIN= 0.3091765634767759E-04
_SEWPROP=TRUE
_STATUS=  0.000000000000000    
_SYSTOT=  9.650000000000000    
_VERSION=  2022003.000000000    
_WALLTOT=  157.7700000000000    
_ZPE= 0.7487634860065706E-01
_DATE=20-Apr-23
_LASTORB=MCSCF
_OUTPUT=/home/andrew/2023dynamics/pyrazole/frequencies/frequencies.out
_PGROUP=C1
_TIME=12:03:49
_LIBMOL=/home/exchange/Luca/molpro2022_3/lib/
_VIGRDC=  0.000000000000000    
!VIBCNT=  0.000000000000000    
!RGHFCNT=  0.000000000000000    
!SURFREC=  0.000000000000000    
!XSURFREC=  0.000000000000000    
!XPOLYREC=  0.000000000000000    
!ROTREC=  0.000000000000000    
!POLYREC=  0.000000000000000    
!DIPREC=  0.000000000000000    
!DIP4DREC=  0.000000000000000    
!DIPROT=  0.000000000000000    
!DIP4DROT=  0.000000000000000    
!PTREC=  0.000000000000000    
!PT4DREC=  0.000000000000000    
!VSCFREC=  0.000000000000000    
!VCIREC=  0.000000000000000    
!PVCIREC=  0.000000000000000    
!VMP2REC=  0.000000000000000    
!VMCSCFREC=  0.000000000000000    
!VMRCIREC=  0.000000000000000    
!VIBSTATEREC=  0.000000000000000    
!VIBSTATECNT=  0.000000000000000    
!VIBINFO=  0.000000000000000    
!GAREC=  0.000000000000000    
!SCFORB=  21002.00000000000    
!MCORB=  20412.00000000000    
!DEFCORE=  5.000000000000000    
!SCORE=  0.000000000000000    
!NEWMOL=  0.000000000000000    
!NEWSYM=  0.000000000000000    
_SLFILES=slscratch
_NGSSTO=  9.000000000000000    
_SIN=SIN
_COS=COS
_TAN=TAN
_ACOS=ACOS
_ASIN=ASIN
_ATAN=ATAN
_COSH=COSH
_SINH=SINH
_TANH=TANH
_ABS=ABS
_MOD=MOD
_ERF=ERF
_REFC=REFC
_ERFC=ERFC
_HYPOT=HYPOT
_J0=J0
_J1=J1
_JN=JN
_GAMMA=GAMMA
_LGAMMA=LGAMMA
_Y0=Y0
_Y1=Y1
_YN=YN
_EXP=EXP
_LOG=LOG
_LOG10=LOG10
_SQRT=SQRT
_INT=INT
_NINT=NINT
_MAX=MAX
_MIN=MIN
_COSMO=  0.000000000000000    
_COSMOIT=  0.000000000000000    
_COSMOES=  0.000000000000000    
_COSMOEDS=  0.000000000000000    
_COSMOEC=  0.000000000000000    
_COSMOEDCORR=  0.000000000000000    
_FEPSI=  1.000000000000000    
_SL_IsMM=  0.000000000000000    
_SL_NSYM=  1.000000000000000    
_SL_System_BitSw=  0.000000000000000    
_SL_Unique_atoms=  0.000000000000000    
_SL_GRAD=  0.000000000000000    
_SL_MAXUPD_Hess=  5.000000000000000    
_SL_N_PRINT_COD=  5.000000000000000    
_SL_PRINT_CODES=  0.000000000000000    
_SL_BasType=  0.000000000000000    
_SL_Energy_Pred=  0.000000000000000    
_SL_New_Coords=  0.000000000000000    
_SL_Total_Nuclea=  0.000000000000000    
_SL_Highest_Mltp=  0.000000000000000    
_SL_Ref_Geom=  0.000000000000000    
_SL_Symmetry_ope=  1.000000000000000    
_SL_agrad=  0.000000000000000    
_SL_GrdMax=  0.000000000000000    
_SL_GrdNorm=  0.000000000000000    
_SL_GrdRMS=  0.000000000000000    
_SL_Hss_Q=  0.000000000000000    
_SL_Hss_X=  0.000000000000000    
_SL_BMxOld=  0.000000000000000    
_SL_KtB=  0.000000000000000    
_SL_TROld=  0.000000000000000    
_SL_No_of_Intern=  0.000000000000000    
_SL_Hess=  0.000000000000000    
_SL_K=  0.000000000000000    
!LATTICE= -1.000000000000000    
!NEWLATTICE=  0.000000000000000    
!LATGRAD_VAR=FALSE
!SEW_LATTICE=  1.000000000000000    
!AIC_ONEEL=  0.000000000000000    
!LOCAL=  0.000000000000000    
!SAVEDOM= -1.000000000000000    
!RESTDOM= -1.000000000000000    
!SAVEDOM_HF= -1.000000000000000    
!RESTDOM_HF= -1.000000000000000    
!HESSREC=  5300.200000000000    
!FREQREC=  5400.200000000000    
!NMODREC=  5450.200000000000    
!GTASKS=  0.000000000000000    
!HTASKS=  0.000000000000000    
!SAVEDOM_EOM= -1.000000000000000    
!RESTDOM_EOM= -1.000000000000000    
!GRADSTATE= -1.000000000000000    
!DEBUG=  0.000000000000000    
!CFIT_CPHF=  0.000000000000000    
!RDOMAUX_CPHF=  0.000000000000000    
!THRAO_CPHF= 0.1000000000000000E-11
!THRMO_CPHF= 0.1000000000000000E-11
!THROV_CPHF= 0.1000000000000000E-11
!THRSW_CPHF= 0.1000000000000000E-11
!THRPROD_CPHF= 0.1000000000000000E-11
!THRAOPR_CPHF= 0.1000000000000000E-11
!CFIT_SCFGRD=  0.000000000000000    
!RDOMAUX_SCFGRD=  0.000000000000000    
!THRAO_SCFGRD= 0.1000000000000000E-11
!THRMO_SCFGRD= 0.1000000000000000E-11
!THROV_SCFGRD= 0.1000000000000000E-11
!THRSW_SCFGRD= 0.1000000000000000E-11
!THRPROD_SCFGRD= 0.1000000000000000E-11
!THRAOPR_SCFGRD= 0.1000000000000000E-11
!LOCFIT_SCF=  0.000000000000000    
!LOCFIT_MP2=  0.000000000000000    
_RIDOM=  0.000000000000000    
!CC2_METHOD=  0.000000000000000    
_BASIS2006=FALSE
_SVDDEL= -1.000000000000000    
_SVDDELA= -1.000000000000000    
_SVDDELP= -1.000000000000000    
_SVDDELF= -1.000000000000000    
_SVDDELS= -1.000000000000000    
_SVDDEL_ABS= -1.000000000000000    
_SVDDELA_ABS= -1.000000000000000    
_SVDDELP_ABS= -1.000000000000000    
_SVDDELF_ABS= -1.000000000000000    
_SVDDELS_ABS= -1.000000000000000    
_MAXBASIS=  0.000000000000000    
!OPT_CONICAL=  0.000000000000000    
!CLEARSP_JGRID=  0.000000000000000    
_GRDHYBR=  0.000000000000000    
_STATEGRAD=  1.000000000000000    
_4EXT_NDISKS=  1.000000000000000    
!EMBEDFLAG=  1.000000000000000    
!EMBED=FALSE
!EMBED_F12=FALSE
!EMBEDNUC=  0.000000000000000    
_EMBEDENERGY=  0.000000000000000    
!EMBED_DFC=FALSE
!NUM_VOIDS=  0.000000000000000    
_IBODY=  0.000000000000000    
_EMBE_CORR=  0.000000000000000    
!EMBED_PROJ=FALSE
!EMB_PROJ_ZMU=  1000000.000000000    
!CORRECTION_HF=  0.000000000000000    
!EMBED_AORB=  0.000000000000000    
!EMBED_NACORR=  0.000000000000000    
!EMBED_MP2=FALSE
!EMBED_TRUNC_PERTURBATION=FALSE
!EMBED_FROZEN=  0.000000000000000    
!EMBED_ACTIVE=  0.000000000000000    
_CHANGE_BASIS=FALSE
_RESTORE_BASIS=FALSE
_FIX_EMBED_GUESS=FALSE
_EMBED_SCF=FALSE
_HUZINAGA_T=FALSE
_HUZINAGA_F=FALSE
_HUZINAGA=FALSE
_HUZINAGA_CORRECT=FALSE
!FASTLATGRAD=  1.000000000000000    
!FASTVLAMBDA= -1.000000000000000    
!IFORCE= -1.000000000000000    
!USESYM= -1.000000000000000    
_SINDEX=  0.000000000000000    
_AVDOM_OSV=  0.000000000000000    
_AVDOM_PNO=  0.000000000000000    
_AVDOM_PAO=  0.000000000000000    
_AVDOM_LMO=  0.000000000000000    
_CC2OSV_FLAG=  0.000000000000000    
_EOMCCSD_CONV=FALSE
_TMADC2_FLAG=FALSE
_PROPADC2_FLAG=FALSE
_LEN_VirQ=  0.000000000000000    
_GRDCC2LR_FLAG=FALSE
_GRDADC2_FLAG=FALSE
_DMX_CC=  4.912532910950224    
_DMY_CC=  2.424409070035411    
_DMZ_CC= 0.8918370020327228E-10
_DMX_NUC=-0.1833421963359982    
_DMY_NUC=-0.2757062435900015E-01
_DMZ_NUC=  0.000000000000000    
_RO_VGLOBAL=  0.000000000000000    
_OPT=FALSE
_FREQ=FALSE
_HESS=FALSE
_CMRCC_callName=EMPTY
_CMRCC_callCount=  0.000000000000000    
_GECCO_CIROOT=  1.000000000000000    
_SYM_CATION=  1.000000000000000    
_MON_A=FALSE
_MON_B=FALSE
GEOMTYPE=XYZ
GX1= 0.1569236200000000E-02
GY1=  1.082313769800000    
GZ1=  0.000000000000000    
GX2=  1.129659895600000    
GY2= 0.3766648909999999    
GZ2=  0.000000000000000    
GX3= 0.7466356615999996    
GY3=-0.8872749850000000    
GZ3=  0.000000000000000    
GX4=-0.6695101273000000    
GY4=-0.9978097308000000    
GZ4=  0.000000000000000    
GX5= -1.108250136200000    
GY5= 0.3068119405000000    
GZ5=  0.000000000000000    
GX6= 0.5069752380000000E-01
GY6=  2.074414904300000    
GZ6=  0.000000000000000    
GX7=  1.483160793200000    
GY7= -1.671750101999999    
GZ7=  0.000000000000000    
GX8= -1.266872523800000    
GY8= -1.891288023900000    
GZ8=  0.000000000000000    
GX9= -2.095862616500000    
GY9= 0.7308195017000000    
GZ9=  0.000000000000000    
NX1= 0.2965426642848470E-02
NY1=  2.045276605833262    
NZ1=  0.000000000000000    
NX2=  2.134747816657340    
NY2= 0.7117934847520180    
NZ2=  0.000000000000000    
CX3=  1.410936915302765    
CY3= -1.676706718881438    
CZ3=  0.000000000000000    
CX4= -1.265190778260335    
CY4= -1.885587115698567    
CZ4=  0.000000000000000    
CX5= -2.094289234997208    
CY5= 0.5797905393099774    
CZ5=  0.000000000000000    
HX6= 0.9580443517869675E-01
HY6=  3.920076037968777    
HZ6=  0.000000000000000    
HX7=  2.802767697930719    
HY7= -3.159149841595195    
HZ7=  0.000000000000000    
HX8= -2.394042104795443    
HY8= -3.574016387955678    
HZ8=  0.000000000000000    
HX9= -3.960606340026572    
HY9=  1.381048704748477    
HZ9=  0.000000000000000    
[Atoms] Angs
N     1    7         0.0015692362        1.0823137698        0.0000000000
N     2    7         1.1296598956        0.3766648910        0.0000000000
C     3    6         0.7466356616       -0.8872749850        0.0000000000
C     4    6        -0.6695101273       -0.9978097308        0.0000000000
C     5    6        -1.1082501362        0.3068119405        0.0000000000
H     6    1         0.0506975238        2.0744149043        0.0000000000
H     7    1         1.4831607932       -1.6717501020        0.0000000000
H     8    1        -1.2668725238       -1.8912880239        0.0000000000
H     9    1        -2.0958626165        0.7308195017        0.0000000000
[GTO]
   1 0
 s    9  1.00
  0.9046000000D+04  0.7000000346D-03
  0.1357000000D+04  0.5389000266D-02
  0.3093000000D+03  0.2740600135D-01
  0.8773000000D+02  0.1032070051D+00
  0.2856000000D+02  0.2787230138D+00
  0.1021000000D+02  0.4485400222D+00
  0.3838000000D+01  0.2782380137D+00
  0.7466000000D+00  0.1544000076D-01
  0.2248000000D+00 -0.2864000141D-02
 s    9  1.00
  0.9046000000D+04 -0.1529999886D-03
  0.1357000000D+04 -0.1207999910D-02
  0.3093000000D+03 -0.5991999553D-02
  0.8773000000D+02 -0.2454399817D-01
  0.2856000000D+02 -0.6745899497D-01
  0.1021000000D+02 -0.1580779882D+00
  0.3838000000D+01 -0.1218309909D+00
  0.7466000000D+00  0.5490029590D+00
  0.2248000000D+00  0.5788149568D+00
 s    9  1.00
  0.9046000000D+04  0.0000000000D+00
  0.1357000000D+04  0.0000000000D+00
  0.3093000000D+03  0.0000000000D+00
  0.8773000000D+02  0.0000000000D+00
  0.2856000000D+02  0.0000000000D+00
  0.1021000000D+02  0.0000000000D+00
  0.3838000000D+01  0.0000000000D+00
  0.7466000000D+00  0.0000000000D+00
  0.2248000000D+00  0.1000000000D+01
 s    1  1.00
  0.6124000000D-01  0.1000000000D+01
 p    4  1.00
  0.1355000000D+02  0.3991901233D-01
  0.2917000000D+01  0.2171690671D+00
  0.7973000000D+00  0.5103191576D+00
  0.2185000000D+00  0.4622141427D+00
 p    4  1.00
  0.1355000000D+02  0.0000000000D+00
  0.2917000000D+01  0.0000000000D+00
  0.7973000000D+00  0.0000000000D+00
  0.2185000000D+00  0.1000000000D+01
 p    1  1.00
  0.5611000000D-01  0.1000000000D+01
 d    1  1.00
  0.8170000000D+00  0.1000000000D+01
 d    1  1.00
  0.2300000000D+00  0.1000000000D+01
  
   2 0
 s    9  1.00
  0.9046000000D+04  0.7000000346D-03
  0.1357000000D+04  0.5389000266D-02
  0.3093000000D+03  0.2740600135D-01
  0.8773000000D+02  0.1032070051D+00
  0.2856000000D+02  0.2787230138D+00
  0.1021000000D+02  0.4485400222D+00
  0.3838000000D+01  0.2782380137D+00
  0.7466000000D+00  0.1544000076D-01
  0.2248000000D+00 -0.2864000141D-02
 s    9  1.00
  0.9046000000D+04 -0.1529999886D-03
  0.1357000000D+04 -0.1207999910D-02
  0.3093000000D+03 -0.5991999553D-02
  0.8773000000D+02 -0.2454399817D-01
  0.2856000000D+02 -0.6745899497D-01
  0.1021000000D+02 -0.1580779882D+00
  0.3838000000D+01 -0.1218309909D+00
  0.7466000000D+00  0.5490029590D+00
  0.2248000000D+00  0.5788149568D+00
 s    9  1.00
  0.9046000000D+04  0.0000000000D+00
  0.1357000000D+04  0.0000000000D+00
  0.3093000000D+03  0.0000000000D+00
  0.8773000000D+02  0.0000000000D+00
  0.2856000000D+02  0.0000000000D+00
  0.1021000000D+02  0.0000000000D+00
  0.3838000000D+01  0.0000000000D+00
  0.7466000000D+00  0.0000000000D+00
  0.2248000000D+00  0.1000000000D+01
 s    1  1.00
  0.6124000000D-01  0.1000000000D+01
 p    4  1.00
  0.1355000000D+02  0.3991901233D-01
  0.2917000000D+01  0.2171690671D+00
  0.7973000000D+00  0.5103191576D+00
  0.2185000000D+00  0.4622141427D+00
 p    4  1.00
  0.1355000000D+02  0.0000000000D+00
  0.2917000000D+01  0.0000000000D+00
  0.7973000000D+00  0.0000000000D+00
  0.2185000000D+00  0.1000000000D+01
 p    1  1.00
  0.5611000000D-01  0.1000000000D+01
 d    1  1.00
  0.8170000000D+00  0.1000000000D+01
 d    1  1.00
  0.2300000000D+00  0.1000000000D+01
  
   3 0
 s    9  1.00
  0.6665000000D+04  0.6920001793D-03
  0.1000000000D+04  0.5329001381D-02
  0.2280000000D+03  0.2707700701D-01
  0.6471000000D+02  0.1017180264D+00
  0.2106000000D+02  0.2747400712D+00
  0.7495000000D+01  0.4485641162D+00
  0.2797000000D+01  0.2850740738D+00
  0.5215000000D+00  0.1520400394D-01
  0.1596000000D+00 -0.3191000827D-02
 s    9  1.00
  0.6665000000D+04 -0.1460000642D-03
  0.1000000000D+04 -0.1154000508D-02
  0.2280000000D+03 -0.5725002519D-02
  0.6471000000D+02 -0.2331201026D-01
  0.2106000000D+02 -0.6395502813D-01
  0.7495000000D+01 -0.1499810660D+00
  0.2797000000D+01 -0.1272620560D+00
  0.5215000000D+00  0.5445292395D+00
  0.1596000000D+00  0.5804962554D+00
 s    9  1.00
  0.6665000000D+04  0.0000000000D+00
  0.1000000000D+04  0.0000000000D+00
  0.2280000000D+03  0.0000000000D+00
  0.6471000000D+02  0.0000000000D+00
  0.2106000000D+02  0.0000000000D+00
  0.7495000000D+01  0.0000000000D+00
  0.2797000000D+01  0.0000000000D+00
  0.5215000000D+00  0.0000000000D+00
  0.1596000000D+00  0.1000000000D+01
 s    1  1.00
  0.4690000000D-01  0.1000000000D+01
 p    4  1.00
  0.9439000000D+01  0.3810902127D-01
  0.2002000000D+01  0.2094801169D+00
  0.5456000000D+00  0.5085572839D+00
  0.1517000000D+00  0.4688422617D+00
 p    4  1.00
  0.9439000000D+01  0.0000000000D+00
  0.2002000000D+01  0.0000000000D+00
  0.5456000000D+00  0.0000000000D+00
  0.1517000000D+00  0.1000000000D+01
 p    1  1.00
  0.4041000000D-01  0.1000000000D+01
 d    1  1.00
  0.5500000000D+00  0.1000000000D+01
 d    1  1.00
  0.1510000000D+00  0.1000000000D+01
  
   4 0
 s    9  1.00
  0.6665000000D+04  0.6920001793D-03
  0.1000000000D+04  0.5329001381D-02
  0.2280000000D+03  0.2707700701D-01
  0.6471000000D+02  0.1017180264D+00
  0.2106000000D+02  0.2747400712D+00
  0.7495000000D+01  0.4485641162D+00
  0.2797000000D+01  0.2850740738D+00
  0.5215000000D+00  0.1520400394D-01
  0.1596000000D+00 -0.3191000827D-02
 s    9  1.00
  0.6665000000D+04 -0.1460000642D-03
  0.1000000000D+04 -0.1154000508D-02
  0.2280000000D+03 -0.5725002519D-02
  0.6471000000D+02 -0.2331201026D-01
  0.2106000000D+02 -0.6395502813D-01
  0.7495000000D+01 -0.1499810660D+00
  0.2797000000D+01 -0.1272620560D+00
  0.5215000000D+00  0.5445292395D+00
  0.1596000000D+00  0.5804962554D+00
 s    9  1.00
  0.6665000000D+04  0.0000000000D+00
  0.1000000000D+04  0.0000000000D+00
  0.2280000000D+03  0.0000000000D+00
  0.6471000000D+02  0.0000000000D+00
  0.2106000000D+02  0.0000000000D+00
  0.7495000000D+01  0.0000000000D+00
  0.2797000000D+01  0.0000000000D+00
  0.5215000000D+00  0.0000000000D+00
  0.1596000000D+00  0.1000000000D+01
 s    1  1.00
  0.4690000000D-01  0.1000000000D+01
 p    4  1.00
  0.9439000000D+01  0.3810902127D-01
  0.2002000000D+01  0.2094801169D+00
  0.5456000000D+00  0.5085572839D+00
  0.1517000000D+00  0.4688422617D+00
 p    4  1.00
  0.9439000000D+01  0.0000000000D+00
  0.2002000000D+01  0.0000000000D+00
  0.5456000000D+00  0.0000000000D+00
  0.1517000000D+00  0.1000000000D+01
 p    1  1.00
  0.4041000000D-01  0.1000000000D+01
 d    1  1.00
  0.5500000000D+00  0.1000000000D+01
 d    1  1.00
  0.1510000000D+00  0.1000000000D+01
  
   5 0
 s    9  1.00
  0.6665000000D+04  0.6920001793D-03
  0.1000000000D+04  0.5329001381D-02
  0.2280000000D+03  0.2707700701D-01
  0.6471000000D+02  0.1017180264D+00
  0.2106000000D+02  0.2747400712D+00
  0.7495000000D+01  0.4485641162D+00
  0.2797000000D+01  0.2850740738D+00
  0.5215000000D+00  0.1520400394D-01
  0.1596000000D+00 -0.3191000827D-02
 s    9  1.00
  0.6665000000D+04 -0.1460000642D-03
  0.1000000000D+04 -0.1154000508D-02
  0.2280000000D+03 -0.5725002519D-02
  0.6471000000D+02 -0.2331201026D-01
  0.2106000000D+02 -0.6395502813D-01
  0.7495000000D+01 -0.1499810660D+00
  0.2797000000D+01 -0.1272620560D+00
  0.5215000000D+00  0.5445292395D+00
  0.1596000000D+00  0.5804962554D+00
 s    9  1.00
  0.6665000000D+04  0.0000000000D+00
  0.1000000000D+04  0.0000000000D+00
  0.2280000000D+03  0.0000000000D+00
  0.6471000000D+02  0.0000000000D+00
  0.2106000000D+02  0.0000000000D+00
  0.7495000000D+01  0.0000000000D+00
  0.2797000000D+01  0.0000000000D+00
  0.5215000000D+00  0.0000000000D+00
  0.1596000000D+00  0.1000000000D+01
 s    1  1.00
  0.4690000000D-01  0.1000000000D+01
 p    4  1.00
  0.9439000000D+01  0.3810902127D-01
  0.2002000000D+01  0.2094801169D+00
  0.5456000000D+00  0.5085572839D+00
  0.1517000000D+00  0.4688422617D+00
 p    4  1.00
  0.9439000000D+01  0.0000000000D+00
  0.2002000000D+01  0.0000000000D+00
  0.5456000000D+00  0.0000000000D+00
  0.1517000000D+00  0.1000000000D+01
 p    1  1.00
  0.4041000000D-01  0.1000000000D+01
 d    1  1.00
  0.5500000000D+00  0.1000000000D+01
 d    1  1.00
  0.1510000000D+00  0.1000000000D+01
  
   6 0
 s    4  1.00
  0.1301000000D+02  0.1968498999D-01
  0.1962000000D+01  0.1379769298D+00
  0.4446000000D+00  0.4781477569D+00
  0.1220000000D+00  0.5012397451D+00
 s    4  1.00
  0.1301000000D+02  0.0000000000D+00
  0.1962000000D+01  0.0000000000D+00
  0.4446000000D+00  0.0000000000D+00
  0.1220000000D+00  0.1000000000D+01
 s    1  1.00
  0.2974000000D-01  0.1000000000D+01
 p    1  1.00
  0.7270000000D+00  0.1000000000D+01
 p    1  1.00
  0.1410000000D+00  0.1000000000D+01
  
   7 0
 s    4  1.00
  0.1301000000D+02  0.1968498999D-01
  0.1962000000D+01  0.1379769298D+00
  0.4446000000D+00  0.4781477569D+00
  0.1220000000D+00  0.5012397451D+00
 s    4  1.00
  0.1301000000D+02  0.0000000000D+00
  0.1962000000D+01  0.0000000000D+00
  0.4446000000D+00  0.0000000000D+00
  0.1220000000D+00  0.1000000000D+01
 s    1  1.00
  0.2974000000D-01  0.1000000000D+01
 p    1  1.00
  0.7270000000D+00  0.1000000000D+01
 p    1  1.00
  0.1410000000D+00  0.1000000000D+01
  
   8 0
 s    4  1.00
  0.1301000000D+02  0.1968498999D-01
  0.1962000000D+01  0.1379769298D+00
  0.4446000000D+00  0.4781477569D+00
  0.1220000000D+00  0.5012397451D+00
 s    4  1.00
  0.1301000000D+02  0.0000000000D+00
  0.1962000000D+01  0.0000000000D+00
  0.4446000000D+00  0.0000000000D+00
  0.1220000000D+00  0.1000000000D+01
 s    1  1.00
  0.2974000000D-01  0.1000000000D+01
 p    1  1.00
  0.7270000000D+00  0.1000000000D+01
 p    1  1.00
  0.1410000000D+00  0.1000000000D+01
  
   9 0
 s    4  1.00
  0.1301000000D+02  0.1968498999D-01
  0.1962000000D+01  0.1379769298D+00
  0.4446000000D+00  0.4781477569D+00
  0.1220000000D+00  0.5012397451D+00
 s    4  1.00
  0.1301000000D+02  0.0000000000D+00
  0.1962000000D+01  0.0000000000D+00
  0.4446000000D+00  0.0000000000D+00
  0.1220000000D+00  0.1000000000D+01
 s    1  1.00
  0.2974000000D-01  0.1000000000D+01
 p    1  1.00
  0.7270000000D+00  0.1000000000D+01
 p    1  1.00
  0.1410000000D+00  0.1000000000D+01


[MO]
 Sym=      1.1
 Ene=     -15.6373
 Spin= Alpha
 Occup=    2.000000
1 1.00231403767215
2 0.010511266078914
3 -0.028481636647208
4 -0.019930610165941
5 0.000271315789937
6 -0.000400786102128
7 -0.000000000000125
8 -0.003155344785071
9 0.006419516876576
10 0.000000000000057
11 -0.000796180647996
12 0.003529966901712
13 -0.000000000000070
14 -0.000106025743620
15 0.000287904291901
16 -0.000181878548281
17 0.000055831692188
18 0.000000000000074
19 0.000000000000039
20 -0.000980328983016
21 -0.000588956363881
22 0.001569285346896
23 0.001043802240945
24 -0.000000000000174
25 -0.000000000000192
26 0.014792271927497
27 0.000530132584164
28 0.005585141275610
29 0.010705123298618
30 0.000084129632738
31 0.000280047454893
32 0.000000000000096
33 -0.004508878508480
34 0.004869536386257
35 0.000000000000212
36 -0.002823185913162
37 0.000890888639323
38 0.000000000000478
39 -0.000066106118507
40 -0.000015179563501
41 0.000081285682008
42 0.000066898088716
43 -0.000000000000024
44 -0.000000000000042
45 0.001247005778944
46 -0.000545309446245
47 -0.000701696332699
48 -0.001510279762855
49 -0.000000000000088
50 0.000000000000100
51 -0.000195989195215
52 -0.000825612925565
53 0.007780294662100
54 -0.004052598842037
55 0.000035738811403
56 0.000042415227193
57 0.000000000000338
58 -0.001869858463515
59 0.004304719156520
60 -0.000000000000317
61 0.001850163312188
62 -0.000276744506260
63 -0.000000000000669
64 0.000094671962881
65 0.000078651492899
66 -0.000173323455780
67 -0.000094380239458
68 -0.000000000000038
69 0.000000000000061
70 -0.000182099070688
71 0.000746039099288
72 -0.000563940028600
73 -0.000515656696909
74 0.000000000000348
75 -0.000000000000232
76 -0.000019596375631
77 -0.000089883521313
78 0.001755851183248
79 -0.002749390859871
80 -0.000062646761685
81 -0.000194847798981
82 0.000000000000010
83 -0.005535446316226
84 -0.002439534824720
85 0.000000000000528
86 0.001015777728964
87 -0.001451841190786
88 0.000000000000418
89 -0.000008082664474
90 0.000065970561967
91 -0.000057887897493
92 0.000088673611042
93 0.000000000000054
94 0.000000000000063
95 -0.000590399128459
96 -0.000149960133830
97 0.000740359262290
98 -0.002065880162780
99 0.000000000000048
100 0.000000000000176
101 0.000043976501968
102 0.000108091372483
103 0.004540351616762
104 0.012513233085273
105 0.000410716553128
106 0.000272266337977
107 -0.000000000000271
108 0.007711826166406
109 0.003827662337295
110 -0.000000000000186
111 0.003013977914450
112 -0.001630953548677
113 -0.000000000000202
114 0.000055805782534
115 0.000050116312672
116 -0.000105922095206
117 -0.000155183238866
118 0.000000000000009
119 0.000000000000080
120 0.002900641749101
121 -0.001849547818798
122 -0.001051093930303
123 0.001133185459850
124 -0.000000000000157
125 0.000000000000014
126 0.000043120440866
127 0.003668592032039
128 -0.000432228681481
129 -0.000007189816919
130 0.000367082998302
131 0.000000000000056
132 -0.000103090257963
133 -0.001498677071908
134 0.000000000000009
135 -0.000672406256756
136 0.001522908606290
137 -0.000845693359474
138 0.000093418027884
139 -0.000083677548081
140 0.000000000000009
141 -0.000379474540445
142 0.000310933139481
143 -0.000000000000059
144 -0.000141521340384
145 -0.002937510247345
146 -0.000263353347198
147 -0.000057145460459
148 -0.000060993918317
149 -0.000000000000049
150 -0.000819793281199
151 -0.001125184692286
152 0.000000000000002
153 -0.000449092263896
154 0.002448502889210
155 0.001215118236769
156 -0.000141075048257
157 -0.000011672741566
158 0.000000000000041
159 0.001226098636747
160 0.000235745708233
161 -0.000000000000128
 Sym=      2.1
 Ene=     -15.5824
 Spin= Alpha
 Occup=    2.000000
1 -0.015086860098557
2 0.001489439089731
3 0.011054839705773
4 0.002130780915260
5 0.000219513711013
6 0.001033041722596
7 0.000000000000587
8 0.008197344506603
9 -0.005782237926064
10 0.000000000000060
11 0.001712042926032
12 -0.000733575707328
13 0.000000000000082
14 -0.000558824781976
15 0.000471884170928
16 0.000086940611048
17 0.000200698733892
18 0.000000000000026
19 0.000000000000018
20 0.000534245359357
21 0.000362870803519
22 -0.000897116162876
23 -0.002227318502843
24 -0.000000000000379
25 -0.000000000000352
26 1.00220894457686
27 -0.005152139252307
28 -0.031939970740080
29 -0.014267149753054
30 -0.013365383762062
31 -0.006067237951612
32 -0.000000000001074
33 0.015180090669698
34 -0.000017951005969
35 0.000000000000573
36 0.001596475191523
37 -0.000019389345239
38 -0.000000000000476
39 0.000322649703191
40 0.000127650021402
41 -0.000450299724593
42 0.000363203687628
43 0.000000000000076
44 0.000000000000051
45 -0.002479870446963
46 0.000463598809322
47 0.002016271637641
48 0.000637069729685
49 -0.000000000000199
50 0.000000000000042
51 0.000714138876741
52 0.006351029671462
53 0.007974956488641
54 0.010834461655957
55 0.000495564030871
56 -0.001494709603738
57 -0.000000000000478
58 -0.005572206659809
59 0.012199794160704
60 -0.000000000000607
61 -0.002293574122524
62 0.002107390565331
63 0.000000000000467
64 0.000219767111600
65 -0.000113199572999
66 -0.000106567538601
67 -0.000930181005520
68 -0.000000000000011
69 -0.000000000000100
70 -0.001377387967092
71 0.003006660774534
72 -0.001629272807442
73 -0.002252557164948
74 0.000000000000559
75 -0.000000000000407
76 -0.000039233043898
77 -0.000000058493715
78 -0.003637803782996
79 -0.006070945571648
80 0.001177808947484
81 -0.000101618114631
82 0.000000000000049
83 -0.004520822368059
84 -0.007792885690015
85 0.000000000001432
86 -0.002091252289942
87 -0.001366783973169
88 -0.000000000000376
89 0.000126239442379
90 -0.000047987362328
91 -0.000078252080051
92 -0.000027292194413
93 -0.000000000000001
94 0.000000000000027
95 0.000275657061404
96 -0.001060686636432
97 0.000785029575028
98 -0.001893684459258
99 0.000000000000271
100 0.000000000000972
101 -0.000190831232092
102 -0.001750381095429
103 0.006683085391022
104 0.002308156078536
105 -0.000666225646897
106 -0.000175438216839
107 0.000000000000710
108 0.002376345323048
109 -0.000145288649220
110 -0.000000000001475
111 0.000243105672953
112 0.000886531809784
113 0.000000000000168
114 0.000057768497657
115 0.000083717247999
116 -0.000141485745656
117 -0.000133903941987
118 -0.000000000000125
119 0.000000000000008
120 0.000256386840187
121 -0.000028460001055
122 -0.000227926839132
123 -0.000535924210904
124 -0.000000000000341
125 0.000000000000522
126 0.002474567253528
127 0.002661983436702
128 -0.000084052262586
129 -0.000055465660532
130 0.000029570298463
131 0.000000000000071
132 0.000080278173443
133 -0.001297038309960
134 0.000000000000194
135 0.004985130176767
136 0.004835126296668
137 0.001154201609324
138 -0.000093817628759
139 -0.000009844796072
140 -0.000000000000143
141 -0.001044076992783
142 0.002517930757783
143 -0.000000000000198
144 -0.000848265302443
145 -0.004585409736945
146 -0.001053857024098
147 -0.000055137316038
148 -0.000051471922897
149 0.000000000000273
150 -0.001308554026299
151 -0.001462911755020
152 0.000000000000327
153 -0.000263390722584
154 -0.000266773177343
155 -0.000384952575161
156 -0.000123656356883
157 -0.000022161633868
158 -0.000000000000070
159 -0.000287922444222
160 -0.000244231475248
161 -0.000000000000056
 Sym=      3.1
 Ene=     -11.2673
 Spin= Alpha