 &FCI NORB= 14,NELEC=16,MS2= 0,
  ORBSYM=1,1,1,1,1,1,1,1,1,1,1,1,1,1,
  ISYM=1
 &END
  0.31974401375888708010E+01   1   1   1   1
 -0.61849255929074475890E+00   2   1   1   1
  0.30622490942170937922E+00   2   1   2   1
  0.69619970748037729447E+00   2   2   1   1
  0.61909065812806440832E+00   2   2   2   1
  0.31965605720400231959E+01   2   2   2   2
 -0.21723370893459109654E+00   3   1   1   1
  0.38491736703871758107E-01   3   1   2   1
 -0.61391584194403069075E-01   3   1   2   2
  0.24751032249963098031E-01   3   1   3   1
  0.39792095817824675585E-01   3   2   1   1
 -0.63608730696496376678E-01   3   2   2   1
 -0.21710132330665621314E+00   3   2   2   2
  0.26550486018644150988E-03   3   2   3   1
  0.25639783664494424087E-01   3   2   3   2
  0.59648764566272483023E+00   3   3   1   1
  0.20619005087967948175E-02   3   3   2   1
  0.60492403835186803196E+00   3   3   2   2
 -0.34126587327812118490E-02   3   3   3   1
 -0.24875395380180988052E-02   3   3   3   2
  0.50013422770478432877E+00   3   3   3   3
 -0.16709155271338213544E+00   4   1   1   1
  0.47803181128749046291E-01   4   1   2   1
  0.26183422781131251295E-01   4   1   2   2
  0.16553379075385676877E-01   4   1   3   1
 -0.81370097302805588502E-02   4   1   3   2
 -0.49324250515365257452E-02   4   1   3   3
  0.16117360285983199641E-01   4   1   4   1
  0.51776043834281255951E-01   4   2   1   1
  0.28426075362342255459E-01   4   2   2   1
  0.16653832732739642930E+00   4   2   2   2
 -0.80825883193346506617E-02   4   2   3   1
 -0.16232976416471700531E-01   4   2   3   2
  0.81702297798405335016E-02   4   2   3   3
 -0.23880703022523125920E-03   4   2   4   1
  0.15376961522997598109E-01   4   2   4   2
  0.14984155254382208744E+00   4   3   1   1
 -0.72846304549151183472E-01   4   3   2   1
 -0.14455650517737758665E+00   4   3   2   2
 -0.32248262048071513544E-02   4   3   3   1
  0.53467897801961761228E-02   4   3   3   2
  0.88623262493838211168E-04   4   3   3   3
 -0.14556971048829752888E-02   4   3   4   1
 -0.45021078822164695664E-03   4   3   4   2
  0.84614892348721632009E-01   4   3   4   3
  0.48284367173278203156E+00   4   4   1   1
 -0.28281243546643495407E-03   4   4   2   1
  0.48158102282643749925E+00   4   4   2   2
 -0.51902763724194968947E-02   4   4   3   1
 -0.31626230039167799180E-02   4   4   3   2
  0.38857729430318221908E+00   4   4   3   3
 -0.10192578088986721952E-02   4   4   4   1
  0.10680842270114174371E-02   4   4   4   2
 -0.10042200925763911101E-02   4   4   4   3
  0.39924242296851986112E+00   4   4   4   4
 -0.50092595897984464742E-02   5   1   1   1
  0.96511232733471625633E-03   5   1   2   1
 -0.11373551196130835938E-02   5   1   2   2
  0.17635502724571877788E-04   5   1   3   1
 -0.18148626378781487789E-03   5   1   3   2
 -0.21644135560044495264E-02   5   1   3   3
  0.10169356582170714035E-02   5   1   4   1
 -0.41476001787889163822E-03   5   1   4   2
  0.41100588490345073972E-03   5   1   4   3
  0.14282458357989763313E-02   5   1   4   4
  0.42503786263240941196E-02   5   1   5   1
 -0.84327712889414757646E-04   5   2   1   1
  0.10049664732182928256E-02   5   2   2   1
  0.39588883720004432870E-02   5   2   2   2
 -0.18223247711535061808E-03   5   2   3   1
 -0.63871718389534796849E-03   5   2   3   2
 -0.72462303777909211483E-03   5   2   3   3
 -0.34983363147899276336E-03   5   2   4   1
 -0.49999671845690708740E-03   5   2   4   2
 -0.15178738472987538238E-02   5   2   4   3
  0.13218403024570434760E-02   5   2   4   4
  0.18511779257455868706E-03   5   2   5   1
  0.45374499809656670263E-02   5   2   5   2
 -0.17297723736059693322E-01   5   3   1   1
 -0.78336498250745250152E-03   5   3   2   1
 -0.20498201361949096311E-01   5   3   2   2
 -0.60254854807317262573E-03   5   3   3   1
 -0.10093114356504059273E-03   5   3   3   2
 -0.19205030125418371539E-01   5   3   3   3
  0.62942591375846795084E-03   5   3   4   1
 -0.16448163559408344320E-02   5   3   4   2
 -0.29568107790783810553E-02   5   3   4   3
  0.10373757618514408904E-01   5   3   4   4
  0.73379984624387974146E-02   5   3   5   1
  0.51053909677092855490E-02   5   3   5   2
  0.74457474960142711051E-01   5   3   5   3
  0.32812221840711856824E-01   5   4   1   1
 -0.17273830171496092067E-01   5   4   2   1
 -0.37008188062675244356E-01   5   4   2   2
 -0.78107365706236856536E-03   5   4   3   1
  0.81086419606386664696E-03   5   4   3   2
 -0.50192387101044792092E-02   5   4   3   3
  0.77779628683098613225E-03   5   4   4   1
  0.61264207202905865499E-03   5   4   4   2
  0.29433561938105947536E-01   5   4   4   3
 -0.25648384949901108058E-02   5   4   4   4
  0.31370450096460280980E-02   5   4   5   1
 -0.54519699786023155877E-02   5   4   5   2
 -0.27973889253541934889E-02   5   4   5   3
  0.68836795292015959258E-01   5   4   5   4
  0.46814151050923780151E+00   5   5   1   1
  0.34373559494373698807E-02   5   5   2   1
  0.48206470145324131771E+00   5   5   2   2
 -0.15062458736266543316E-02   5   5   3   1
 -0.11526032060577800879E-02   5   5   3   2
  0.41560153079013711919E+00   5   5   3   3
 -0.12841895828764873441E-02   5   5   4   1
  0.21226615379310413700E-02   5   5   4   2
 -0.38629477873062308818E-02   5   5   4   3
  0.38096179180922778995E+00   5   5   4   4
 -0.98815149777175289962E-04   5   5   5   1
 -0.95049486284290115624E-04   5   5   5   2
 -0.18462638172994771252E-02   5   5   5   3
 -0.19614234635483840385E-02   5   5   5   4
  0.40034607894915735793E+00   5   5   5   5
  0.15150190828821788122E-01   6   1   1   1
 -0.43058822503428961781E-02   6   1   2   1
 -0.24252273129312228866E-02   6   1   2   2
 -0.37608337553809326019E-02   6   1   3   1
 -0.34731398566343479623E-04   6   1   3   2
 -0.82776962104530536074E-02   6   1   3   3
  0.90740066048965303466E-03   6   1   4   1
 -0.65210311487901516901E-03   6   1   4   2
  0.26713706018064811189E-02   6   1   4   3
  0.43206418109962840823E-02   6   1   4   4
  0.92278579092241509469E-03   6   1   5   1
 -0.16985238374313553402E-03   6   1   5   2
  0.12016418304124139999E-02   6   1   5   3
  0.14143721945175996221E-02   6   1   5   4
 -0.15058212373136347414E-02   6   1   5   5
  0.69722964436885583386E-02   6   1   6   1
 -0.98852379165467463285E-02   6   2   1   1
  0.65549950610957969169E-02   6   2   2   1
  0.16500164595841190079E-01   6   2   2   2
 -0.37941017567338251252E-04   6   2   3   1
 -0.35328257087796858388E-02   6   2   3   2
 -0.50237836610771005943E-02   6   2   3   3
 -0.40995954509145265694E-03   6   2   4   1
 -0.12157272443565200412E-02   6   2   4   2
 -0.47731385414774589113E-02   6   2   4   3
  0.25933960669135567093E-02   6   2   4   4
 -0.17183403933075988958E-03   6   2   5   1
  0.27794579668401415870E-04   6   2   5   2
 -0.28778866030067153797E-03   6   2   5   3
 -0.52109481010336594891E-03   6   2   5   4
 -0.76330725170815970186E-03   6   2   5   5
  0.33235997435305614451E-03   6   2   6   1
  0.69511168996459387140E-02   6   2   6   2
 -0.10798984425938877585E+00   6   3   1   1
  0.82845031425656467071E-03   6   3   2   1
 -0.10483075534898615710E+00   6   3   2   2
 -0.18272639058341587446E-02   6   3   3   1
 -0.11290086709890483161E-02   6   3   3   2
 -0.96513312638449505476E-01   6   3   3   3
  0.31587280853412579018E-02   6   3   4   1
 -0.53502149199890196990E-02   6   3   4   2
 -0.25140549064825087888E-02   6   3   4   3
 -0.87628056250056620552E-03   6   3   4   4
  0.12150002703531512585E-02   6   3   5   1
 -0.21579883150911547806E-03   6   3   5   2
  0.20572258172719920348E-02   6   3   5   3
  0.68237958275408584427E-02   6   3   5   4
 -0.31672755960462851965E-01   6   3   5   5
  0.10880339471361690287E-01   6   3   6   1
  0.71915535656550686264E-02   6   3   6   2
  0.85606436458172341375E-01   6   3   6   3
  0.10072838119496947684E+00   6   4   1   1
 -0.51589103105761736912E-01   6   4   2   1
 -0.10776829718864851249E+00   6   4   2   2
 -0.18462415766374716975E-02   6   4   3   1
  0.29088679803976427198E-02   6   4   3   2
 -0.47808245351453485320E-02   6   4   3   3
  0.23409168097675309844E-02   6   4   4   1
  0.13956080134360033997E-02   6   4   4   2
  0.81652553599748919910E-01   6   4   4   3
  0.55428935942211828014E-03   6   4   4   4
  0.12230853396447611582E-02   6   4   5   1
 -0.26249310888653562069E-03   6   4   5   2
  0.83170886629816559443E-02   6   4   5   3
  0.21943506436347168242E-01   6   4   5   4
 -0.37497264145114660508E-02   6   4   5   5
  0.47721520671891413945E-02   6   4   6   1
 -0.76401570687959444866E-02   6   4   6   2
 -0.11579953991460306684E-02   6   4   6   3
  0.99906271097504273371E-01   6   4   6   4
  0.33873039407444287263E-01   6   5   1   1
 -0.92802806133987711390E-02   6   5   2   1
 -0.36389207446330265952E-02   6   5   2   2
 -0.41516557171377468363E-03   6   5   3   1
  0.33831616191242326564E-03   6   5   3   2
  0.74397728022850082713E-02   6   5   3   3
 -0.28129876395605061732E-04   6   5   4   1
  0.26785564515421813724E-03   6   5   4   2
  0.12962027208477704815E-01   6   5   4   3
  0.11869775148937137740E-01   6   5   4   4
  0.10126955827145869577E-02   6   5   5   1
  0.55734804272810148373E-03   6   5   5   2
  0.20603059308167862712E-01   6   5   5   3
  0.29697713480303679356E-02   6   5   5   4
  0.10161013016966964281E-01   6   5   5   5
  0.95422279894626175481E-04   6   5   6   1
 -0.11178803005358840719E-02   6   5   6   2
 -0.77430960677946965992E-02   6   5   6   3
  0.18341815878096193876E-01   6   5   6   4
  0.35124654662878410094E-01   6   5   6   5
  0.54152861157519993629E+00   6   6   1   1
  0.24645383251187071884E-02   6   6   2   1
  0.55152469882686872005E+00   6   6   2   2
 -0.17777991680939467939E-02   6   6   3   1
 -0.13418832823783046447E-02   6   6   3   2
  0.45699076442304514822E+00   6   6   3   3
 -0.25360438067421396495E-02   6   6   4   1
  0.41972131276641570091E-02   6   6   4   2
 -0.12250490106216066488E-02   6   6   4   3
  0.39369144277955159250E+00   6   6   4   4
 -0.10818041209711749297E-02   6   6   5   1
 -0.97918352567401452380E-03   6   6   5   2
 -0.17685577965695656322E-01   6   6   5   3
  0.77426576706545215123E-02   6   6   5   4
  0.39472076609690026627E+00   6   6   5   5
 -0.42649800366972301369E-02   6   6   6   1
 -0.22873155131534969597E-02   6   6   6   2
 -0.60338435714035257296E-01   6   6   6   3
 -0.76493684946865592167E-02   6   6   6   4
  0.12318815295895430006E-03   6   6   6   5
  0.45466997834556843738E+00   6   6   6   6
 -0.44522565106786095648E-02   7   1   1   1
  0.17800766115868855294E-02   7   1   2   1
  0.27257473001997601682E-02   7   1   2   2
  0.24632778501832743034E-03   7   1   3   1
 -0.51512788569165704911E-03   7   1   3   2
 -0.72908974554965980813E-03   7   1   3   3
  0.58766668879912974718E-03   7   1   4   1
  0.32939278545719724188E-04   7   1   4   2
  0.35823240644802295171E-04   7   1   4   3
  0.23154487050407854720E-03   7   1   4   4
 -0.34103465763284145432E-02   7   1   5   1
  0.16477864206356322707E-02   7   1   5   2
 -0.39393859566035248007E-02   7   1   5   3
 -0.45761772305096450747E-02   7   1   5   4
 -0.47455600867954390127E-03   7   1   5   5
  0.11435695509891114201E-02   7   1   6   1
 -0.29227550469467731544E-03   7   1   6   2
  0.16293422891464773641E-02   7   1   6   3
  0.93105021178362633305E-03   7   1   6   4
 -0.67719157748883783855E-03   7   1   6   5
 -0.65457838521484630178E-03   7   1   6   6
  0.42767874659343889376E-02   7   1   7   1
  0.11972340463140089799E-02   7   2   1   1
  0.35868057735324878309E-02   7   2   2   1
  0.15671867328872893244E-01   7   2   2   2
 -0.51525503853131415181E-03   7   2   3   1
 -0.17931073966130301259E-02   7   2   3   2
 -0.84530727033952062898E-04   7   2   3   3
  0.51103307769091741786E-04   7   2   4   1
  0.73259770573619667489E-03   7   2   4   2
 -0.11422154112079915128E-02   7   2   4   3
  0.13306060190613167808E-02   7   2   4   4
  0.18219834865423815799E-02   7   2   5   1
  0.36049190713142065419E-02   7   2   5   2
  0.66169304013642665091E-02   7   2   5   3
 -0.30005668523103395766E-02   7   2   5   4
  0.26157655757787635735E-03   7   2   5   5
 -0.33152692134856521448E-03   7   2   6   1
 -0.28774453800519197988E-03   7   2   6   2
 -0.99796052697139034544E-03   7   2   6   3
  0.17988592369125381816E-03   7   2   6   4
  0.10497469003809319771E-02   7   2   6   5
 -0.59099952474495672655E-03   7   2   6   6
 -0.21546065301423277601E-03   7   2   7   1
  0.37687387788400872508E-02   7   2   7   2
 -0.44320096958946298901E-02   7   3   1   1
 -0.39936976174958600458E-02   7   3   2   1
 -0.20589185904706437669E-01   7   3   2   2
 -0.21754248113116538390E-03   7   3   3   1
  0.26532955050015638544E-03   7   3   3   2
 -0.91426661885701983323E-02   7   3   3   3
  0.34088001984061287904E-04   7   3   4   1
 -0.10244714004044705360E-02   7   3   4   2
  0.13279362055380068003E-02   7   3   4   3
  0.18063999745619539056E-02   7   3   4   4
 -0.27819625704926329718E-02   7   3   5   1
  0.48104758132346530503E-02   7   3   5   2
  0.13289102290609351373E-02   7   3   5   3
 -0.46194352729333421070E-01   7   3   5   4
 -0.42014600008461484154E-02   7   3   5   5
  0.14471994028883781828E-02   7   3   6   1
 -0.63330136611515789810E-03   7   3   6   2
  0.54782244092273528133E-02   7   3   6   3
  0.99209692977514848944E-02   7   3   6   4
  0.16833250032048663325E-03   7   3   6   5
 -0.13956120089082799107E-01   7   3   6   6
  0.50543794578374956830E-02   7   3   7   1
  0.24787248905583769004E-02   7   3   7   2
  0.42393207272060827451E-01   7   3   7   3
  0.11354484781123606527E-01   7   4   1   1
 -0.53107983248989847069E-02   7   4   2   1
 -0.10114285525798282286E-01   7   4   2   2
 -0.19392804148010760147E-03   7   4   3   1
  0.10412141962047713386E-03   7   4   3   2
  0.12521694482175126095E-03   7   4   3   3
  0.10649868247175988713E-03   7   4   4   1
  0.71081046890423692404E-03   7   4   4   2
  0.11210467015669502155E-01   7   4   4   3
 -0.12412119665721504935E-01   7   4   4   4
 -0.60078628812227780065E-02   7   4   5   1
 -0.38758148078358377157E-02   7   4   5   2
 -0.67960658890725944570E-01   7   4   5   3
  0.24355877182482693621E-02   7   4   5   4
 -0.13246333326237130085E-01   7   4   5   5
  0.13399397629731382882E-02   7   4   6   1
  0.57172639900618415273E-03   7   4   6   2
  0.12138503294274113897E-01   7   4   6   3
  0.14653626219835007294E-02   7   4   6   4
 -0.39221006754865901656E-01   7   4   6   5
  0.12007879289926389269E-01   7   4   6   6
  0.41971296727201651278E-02   7   4   7   1
 -0.56440507256144221288E-02   7   4   7   2
  0.43153698000855762393E-02   7   4   7   3
  0.84584073695958078565E-01   7   4   7   4
 -0.13534167527073207027E+00   7   5   1   1
  0.68410236735776591699E-01   7   5   2   1
  0.14113264995485386155E+00   7   5   2   2
  0.17326510444772187658E-02   7   5   3   1
 -0.28747097982527074558E-02   7   5   3   2
  0.43014190554425922597E-02   7   5   3   3
 -0.29909481351243831461E-03   7   5   4   1
 -0.27282383435598144038E-03   7   5   4   2
 -0.97848255133879541434E-01   7   5   4   3
  0.20362665947980963105E-02   7   5   4   4
 -0.59774248061095019112E-03   7   5   5   1
  0.82318967251858985758E-03   7   5   5   2
  0.78272196446849996720E-03   7   5   5   3
 -0.32625652234078858505E-01   7   5   5   4
  0.73293574438415068362E-02   7   5   5   5
 -0.25822123007052961291E-02   7   5   6   1
  0.41481980599703590501E-02   7   5   6   2
  0.48629458878896893170E-03   7   5   6   3
 -0.95846548442797802059E-01   7   5   6   4
 -0.15061123815425448563E-01   7   5   6   5
  0.51067607365270842323E-02   7   5   6   6
 -0.21629977601385201071E-03   7   5   7   1
  0.50197952759509039105E-03   7   5   7   2
 -0.46163260604605146561E-02   7   5   7   3
 -0.13022385926047340410E-01   7   5   7   4
  0.12905280805503754893E+00   7   5   7   5
  0.43613222828620124005E-01   7   6   1   1
 -0.14534748652225671153E-01   7   6   2   1
 -0.15117783860568145479E-01   7   6   2   2
 -0.32261403864527804291E-03   7   6   3   1
  0.66900877672672949981E-03   7   6   3   2
  0.10534179018451031787E-01   7   6   3   3
 -0.24066673520769859759E-03   7   6   4   1
  0.43134456194921942575E-03   7   6   4   2
  0.18690363429478551449E-01   7   6   4   3
  0.31447591135275246299E-02   7   6   4   4
 -0.10701318151229224918E-02   7   6   5   1
  0.16143179985624027829E-02   7   6   5   2
 -0.15499578597171674924E-03   7   6   5   3
 -0.36598637655701510285E-01   7   6   5   4
 -0.22356276580776015400E-03   7   6   5   5
 -0.86998810188272668060E-04   7   6   6   1
 -0.19692093815878095042E-02   7   6   6   2
 -0.11002827891312488839E-01   7   6   6   3
  0.24915681299808797866E-01   7   6   6   4
  0.37663126172409961204E-02   7   6   6   5
 -0.28637706138097754338E-03   7   6   6   6
  0.17885371854527419046E-02   7   6   7   1
  0.90054935535074996482E-03   7   6   7   2
  0.30884681559956037034E-01   7   6   7   3
  0.52865953174155329297E-02   7   6   7   4
 -0.24949732890525766482E-01   7   6   7   5
  0.44476659252811620582E-01   7   6   7   6
  0.45577126336377943305E+00   7   7   1   1
 -0.61550712157603156699E-02   7   7   2   1
  0.43089814210365984248E+00   7   7   2   2
 -0.20720658309573776641E-02   7   7   3   1
 -0.97764722103715049652E-03   7   7   3   2
  0.38714894748099448751E+00   7   7   3   3
 -0.79457098178451444903E-03   7   7   4   1
  0.13262657532919449634E-02   7   7   4   2
  0.91805347853349018872E-02   7   7   4   3
  0.37481855185564838528E+00   7   7   4   4
 -0.11820715839882293356E-02   7   7   5   1
 -0.36404708655482021559E-03   7   7   5   2
 -0.15453132647312430720E-01   7   7   5   3
 -0.71121515653798199341E-02   7   7   5   4
  0.38246225366898906062E+00   7   7   5   5
  0.79421363176323525254E-03   7   7   6   1
 -0.24964535591636945536E-04   7   7   6   2
 -0.88737276160461564523E-02   7   7   6   3
  0.79373857787588784907E-02   7   7   6   4
 -0.60287185223077098539E-02   7   7   6   5
  0.38217142790608599201E+00   7   7   6   6
  0.10922031116073235672E-02   7   7   7   1
 -0.72782317498245067619E-03   7   7   7   2
  0.69333983491138041766E-02   7   7   7   3
  0.16911591648087812706E-01   7   7   7   4
 -0.11430120556002808241E-01   7   7   7   5
  0.11447362971656251107E-01   7   7   7   6
  0.39007831450993563083E+00   7   7   7   7
  0.84416714595559640133E-02   8   1   1   1
 -0.21401423133948736799E-02   8   1   2   1
 -0.20703637098454412478E-03   8   1   2   2
 -0.73225259871688745065E-03   8   1   3   1
  0.30327764396712497599E-03   8   1   3   2
  0.71870289759538570455E-03   8   1   3   3
 -0.66507222302922275325E-03   8   1   4   1
  0.10847943826360927143E-03   8   1   4   2
  0.32682229145042666820E-03   8   1   4   3
  0.32959748931363246809E-03   8   1   4   4
  0.39308517814029477356E-03   8   1   5   1
 -0.18347138350013477109E-03   8   1   5   2
  0.52160126201369070090E-03   8   1   5   3
  0.39716088854194653464E-03   8   1   5   4
  0.28158922633689752440E-03   8   1   5   5
 -0.85763597799534468588E-04   8   1   6   1
 -0.97737397530191723913E-05   8   1   6   2
 -0.30976655185512111824E-03   8   1   6   3
 -0.16310111638051557194E-04   8   1   6   4
  0.45070753017748606695E-04   8   1   6   5
  0.34723520460871028313E-03   8   1   6   6
  0.42790984347884967152E-03   8   1   7   1
  0.52255380991094508203E-04   8   1   7   2
  0.87663634699568779903E-03   8   1   7   3
  0.14925171167258965890E-04   8   1   7   4
 -0.13018756990101126229E-03   8   1   7   5
 -0.28051539923371906181E-03   8   1   7   6
  0.12541080033362755723E-03   8   1   7   7
  0.95088246888986559247E-02   8   1   8   1
 -0.20523802576201972264E-02   8   2   1   1
 -0.60018484892432506783E-03   8   2   2   1
 -0.44707938070545558129E-02   8   2   2   2
  0.30348612357768882733E-03   8   2   3   1
  0.47545135105592353309E-03   8   2   3   2
 -0.42793828001134732834E-04   8   2   3   3
  0.10408664149339223910E-03   8   2   4   1
 -0.24896159406974003279E-03   8   2   4   2
  0.23296285433174867955E-03   8   2   4   3
 -0.34095961631205482997E-03   8   2   4   4
 -0.22175098259768802572E-03   8   2   5   1
 -0.42503592932847863170E-03   8   2   5   2
 -0.83804707779420745811E-03   8   2   5   3
  0.24799278447341921439E-03   8   2   5   4
 -0.43878610911209873363E-04   8   2   5   5
  0.10976496222855635328E-04   8   2   6   1
 -0.38394629667763214079E-04   8   2   6   2
  0.11027236840716542817E-03   8   2   6   3
  0.62245971873364417228E-04   8   2   6   4
 -0.48117256594156296171E-04   8   2   6   5
 -0.68717031271617117719E-04   8   2   6   6
  0.54479363995944867427E-04   8   2   7   1
  0.46590169146862683326E-03   8   2   7   2
  0.65102102465069641452E-03   8   2   7   3
 -0.74338046539328318406E-04   8   2   7   4
 -0.17013832980602064501E-03   8   2   7   5
 -0.16122975748360181443E-03   8   2   7   6
 -0.10021685560911876962E-03   8   2   7   7
  0.19514090705432453224E-03   8   2   8   1
  0.94049239858787821861E-02   8   2   8   2
 -0.19950867026866988402E-02   8   3   1   1
  0.19472779443546947824E-02   8   3   2   1
  0.58808612709999319446E-02   8   3   2   2
  0.28215080517749472006E-03   8   3   3   1
 -0.11945548969864892776E-03   8   3   3   2
  0.31812018255302403416E-02   8   3   3   3
  0.23910575617815005311E-03   8   3   4   1
  0.20495401145026383594E-03   8   3   4   2
  0.15267542265403580455E-03   8   3   4   3
  0.85494376282035369416E-03   8   3   4   4
  0.28936748482384503419E-03   8   3   5   1
 -0.46446631356656092188E-03   8   3   5   2
 -0.20790046604254034572E-04   8   3   5   3
  0.34526720861376460070E-02   8   3   5   4
  0.14773076839010230218E-02   8   3   5   5
 -0.15282388307368973096E-03   8   3   6   1
 -0.19030390137527731229E-04   8   3   6   2
 -0.63294227693649765878E-03   8   3   6   3
 -0.10901911463903188240E-02   8   3   6   4
 -0.23146790808927864350E-03   8   3   6   5
  0.19849436673133359632E-02   8   3   6   6
  0.77385745548694121528E-03   8   3   7   1
  0.55999686915595716340E-03   8   3   7   2
  0.53011449306638140644E-02   8   3   7   3
 -0.22954740401091784955E-03   8   3   7   4
  0.25481867986358228660E-03   8   3   7   5
 -0.46187405571578360117E-02   8   3   7   6
 -0.15188692074792240708E-03   8   3   7   7
  0.12228807980356260973E-01   8   3   8   1
  0.78115497484890572891E-02   8   3   8   2
  0.77179333866708110801E-01   8   3   8   3
 -0.45010260043678784400E-02   8   4   1   1
  0.16937084889459628600E-02   8   4   2   1
  0.23489231527976162962E-02   8   4   2   2
  0.24974735562468760881E-03   8   4   3   1
 -0.62724393322398472751E-04   8   4   3   2
  0.60854832606258035289E-03   8   4   3   3
  0.75025175624601200342E-04   8   4   4   1
 -0.15030325219479200092E-03   8   4   4   2
 -0.19402629319190062632E-02   8   4   4   3
  0.17932536965969269206E-02   8   4   4   4
  0.67295349062969800780E-03   8   4   5   1
  0.44895562524645466797E-03   8   4   5   2
  0.76393837826303203839E-02   8   4   5   3
 -0.60937066230599241327E-03   8   4   5   4
  0.16399638773717871258E-02   8   4   5   5
 -0.27863427141198217904E-03   8   4   6   1
 -0.37363864928570417060E-04   8   4   6   2
 -0.15216037617575683266E-02   8   4   6   3
 -0.10261545499516695323E-02   8   4   6   4
  0.38091372743864399843E-02   8   4   6   5
 -0.96497864635662275457E-03   8   4   6   6
 -0.27895175902658490407E-04   8   4   7   1
 -0.50963492518621602960E-04   8   4   7   2
 -0.35495956869267548516E-03   8   4   7   3
 -0.61121786255190534501E-02   8   4   7   4
  0.22925460273193710645E-02   8   4   7   5
 -0.72649452873692810153E-03   8   4   7   6
 -0.12337372443876188071E-02   8   4   7   7
  0.45719325236949284741E-02   8   4   8   1
 -0.70276185189702532891E-02   8   4   8   2
  0.72527097235877409191E-03   8   4   8   3
  0.30066013813979788893E-01   8   4   8   4
  0.15370131566619080199E-01   8   5   1   1
 -0.76734460042920489206E-02   8   5   2   1
 -0.15640539947210787414E-01   8   5   2   2
 -0.18113503768829350535E-03   8   5   3   1
  0.32284769332662914846E-03   8   5   3   2
 -0.25844607798506676706E-03   8   5   3   3
 -0.52639635389735809376E-06   8   5   4   1
  0.24714324301972118343E-04   8   5   4   2
  0.10564195255062204179E-01   8   5   4   3
 -0.28155215596065825100E-03   8   5   4   4
 -0.26360393389484465271E-04   8   5   5   1
 -0.39972152234712448801E-04   8   5   5   2
 -0.11932204698868588508E-03   8   5   5   3
  0.36662591608400572560E-02   8   5   5   4
 -0.73341448291102545338E-03   8   5   5   5
  0.24181992776366038108E-03   8   5   6   1
 -0.45564498830915288984E-03   8   5   6   2
 -0.27985940215063032002E-03   8   5   6   3
  0.10325133333635811914E-01   8   5   6   4
  0.16618672568420212073E-02   8   5   6   5
 -0.39526834630015787210E-03   8   5   6   6
  0.99518162679098685452E-04   8   5   7   1
 -0.86740523369150751782E-04   8   5   7   2
  0.96607253192942162817E-04   8   5   7   3
  0.14904510350779508025E-02   8   5   7   4
 -0.12364514517331066934E-01   8   5   7   5
  0.26209149308714634746E-02   8   5   7   6
  0.11708157829705824297E-02   8   5   7   7
 -0.98365521925061503235E-04   8   5   8   1
 -0.29530425968172016853E-03   8   5   8   2
 -0.28792982771408703359E-02   8   5   8   3
  0.15295393994313867363E-04   8   5   8   4
  0.14593477239615702812E-01   8   5   8   5
 -0.49622525366391266946E-02   8   6   1   1
  0.13761568165009344794E-02   8   6   2   1
  0.60098142818784303608E-03   8   6   2   2
  0.62620660990654782030E-04   8   6   3   1
 -0.69236315764057573493E-04   8   6   3   2
 -0.13494701522766131604E-02   8   6   3   3
 -0.71279053503349462466E-04   8   6   4   1
 -0.66219662784863759586E-04   8   6   4   2
 -0.21201445135376898246E-02   8   6   4   3
 -0.93171826573052341381E-03   8   6   4   4
  0.10430082450831599291E-03   8   6   5   1
 -0.22101864266389631961E-03   8   6   5   2
 -0.21145934280472183367E-03   8   6   5   3
  0.42159919415026211875E-02   8   6   5   4
 -0.17300566218996307494E-03   8   6   5   5
 -0.16610882987140758449E-03   8   6   6   1
  0.30619523849399348002E-03   8   6   6   2
  0.86349184150701660621E-03   8   6   6   3
 -0.28453978994921534477E-02   8   6   6   4
 -0.41103018439727018532E-03   8   6   6   5
 -0.12581532238101450320E-03   8   6   6   6
 -0.45756274270678995702E-03   8   6   7   1
 -0.23767440982776390354E-03   8   6   7   2
 -0.56903258479255565752E-02   8   6   7   3
 -0.57896408364693330122E-03   8   6   7   4
  0.26979202840061496799E-02   8   6   7   5
 -0.25697680687201828083E-02   8   6   7   6
 -0.11160057780395073786E-02   8   6   7   7
 -0.17326755463318900281E-02   8   6   8   1
 -0.10452755781317996184E-02   8   6   8   2
 -0.16347337760333223444E-01   8   6   8   3
 -0.40315887674517041951E-03   8   6   8   4
  0.10960946966839348656E-02   8   6   8   5
  0.20245247352923517736E-01   8   6   8   6
  0.13401803809338698817E-01   8   7   1   1
  0.68338807345544869739E-03   8   7   2   1
  0.16173639608602602413E-01   8   7   2   2
 -0.37134787501805013402E-05   8   7   3   1
 -0.54491862614214119033E-04   8   7   3   2
  0.10123189907271405025E-01   8   7   3   3
 -0.22818506124133887533E-03   8   7   4   1
  0.36071095692766621046E-03   8   7   4   2
 -0.73004487945189759646E-03   8   7   4   3
  0.13197549886363993312E-02   8   7   4   4
  0.99246745286931295602E-04   8   7   5   1
 -0.22869968709243768763E-04   8   7   5   2
  0.15087540425575232152E-03   8   7   5   3
  0.73656450134378884803E-03   8   7   5   4
  0.12628499520638577884E-02   8   7   5   5
 -0.62193226161180704091E-03   8   7   6   1
 -0.30560012950052364150E-03   8   7   6   2
 -0.75680666141925423407E-02   8   7   6   3
 -0.10985917489187834329E-02   8   7   6   4
  0.13064024735482296195E-02   8   7   6   5
  0.58152501508766394137E-02   8   7   6   6
 -0.28798614573182748817E-03   8   7   7   1
  0.36841991530919220683E-04   8   7   7   2
 -0.21403140219074402034E-02   8   7   7   3
 -0.14887350988404886732E-02   8   7   7   4
  0.12861208599842593406E-02   8   7   7   5
 -0.27100014949466694463E-04   8   7   7   6
 -0.17331392329104103279E-03   8   7   7   7
 -0.98041920907732509343E-04   8   7   8   1
 -0.65927764792605655399E-03   8   7   8   2
 -0.25260310710230075501E-02   8   7   8   3
  0.11249204870824795581E-02   8   7   8   4
  0.10071833106012329211E-03   8   7   8   5
  0.14374539803182271973E-02   8   7   8   6
  0.99756746071919949470E-02   8   7   8   7
  0.59116737989119183538E+00   8   8   1   1
  0.39926633678111391043E-03   8   8   2   1
  0.59286414575917811831E+00   8   8   2   2
 -0.27669094974611236314E-02   8   8   3   1
 -0.18352048345905988894E-02   8   8   3   2
  0.48052126410958895253E+00   8   8   3   3
 -0.29828250729137927716E-02   8   8   4   1
  0.48796722095025748395E-02   8   8   4   2
  0.16132747871616340968E-02   8   8   4   3
  0.39062124152426908053E+00   8   8   4   4
 -0.11636177357581167953E-02   8   8   5   1
 -0.45932425627444144201E-03   8   8   5   2
 -0.14632814576828736750E-01   8   8   5   3
 -0.22547074498231005346E-02   8   8   5   4
  0.39691473397934928791E+00   8   8   5   5
 -0.41513854939473054245E-02   8   8   6   1
 -0.25845034967818922463E-02   8   8   6   2
 -0.75710460185273428801E-01   8   8   6   3
 -0.25761777740516689228E-02   8   8   6   4
  0.79665519360644018731E-02   8   8   6   5
  0.43671748500839446816E+00   8   8   6   6
 -0.42872250770441288660E-03   8   8   7   1
 -0.52181252196108066435E-04   8   8   7   2
 -0.83546971740980219279E-02   8   8   7   3
  0.66743045031574660397E-03   8   8   7   4
  0.19318149325770472835E-02   8   8   7   5
  0.91812113603545048024E-02   8   8   7   6
  0.37263267755639795098E+00   8   8   7   7
 -0.19661474228808395698E-03   8   8   8   1
  0.40213965765734257206E-03   8   8   8   2
  0.12759192645282494902E-02   8   8   8   3
 -0.17165829376451532777E-02   8   8   8   4
 -0.67695856151832149716E-04   8   8   8   5
 -0.14513832794342089449E-02   8   8   8   6